# vtk DataFile Version 2.0
generated by CFD-lab course output 
ASCII

DATASET STRUCTURED_GRID
DIMENSIONS 2 2 2 
POINTS 8 float

0.000000 0.000000 0.000000
0.000000 0.000000 1.000000
0.000000 1.000000 0.000000
0.000000 1.000000 1.000000
1.000000 0.000000 0.000000
1.000000 0.000000 1.000000
1.000000 1.000000 0.000000
1.000000 1.000000 1.000000
POINT_DATA 8 


CELL_DATA 8 
SCALARS density float 1 
LOOKUP_TABLE default 
1.000779
1.001015
1.002649
1.000797
1.000653
1.000000
1.003116
1.001047

VECTORS velocity float
-0.000778 0.000000 0.000778
-0.001014 0.000000 0.001014
0.000863 -0.000459 0.002642
0.000000 -0.000797 0.000797
0.000652 0.000000 0.000652
0.000000 0.000000 -0.000000
-0.000662 -0.000641 0.003106
0.000000 -0.001045 0.001045

