# vtk DataFile Version 2.0
generated by CFD-lab course output (written by Tobias Neckel) 
ASCII

DATASET STRUCTURED_GRID
DIMENSIONS  51 51 1 
POINTS 2601 float

0.000000 0.000000 0
0.020000 0.000000 0
0.040000 0.000000 0
0.060000 0.000000 0
0.080000 0.000000 0
0.100000 0.000000 0
0.120000 0.000000 0
0.140000 0.000000 0
0.160000 0.000000 0
0.180000 0.000000 0
0.200000 0.000000 0
0.220000 0.000000 0
0.240000 0.000000 0
0.260000 0.000000 0
0.280000 0.000000 0
0.300000 0.000000 0
0.320000 0.000000 0
0.340000 0.000000 0
0.360000 0.000000 0
0.380000 0.000000 0
0.400000 0.000000 0
0.420000 0.000000 0
0.440000 0.000000 0
0.460000 0.000000 0
0.480000 0.000000 0
0.500000 0.000000 0
0.520000 0.000000 0
0.540000 0.000000 0
0.560000 0.000000 0
0.580000 0.000000 0
0.600000 0.000000 0
0.620000 0.000000 0
0.640000 0.000000 0
0.660000 0.000000 0
0.680000 0.000000 0
0.700000 0.000000 0
0.720000 0.000000 0
0.740000 0.000000 0
0.760000 0.000000 0
0.780000 0.000000 0
0.800000 0.000000 0
0.820000 0.000000 0
0.840000 0.000000 0
0.860000 0.000000 0
0.880000 0.000000 0
0.900000 0.000000 0
0.920000 0.000000 0
0.940000 0.000000 0
0.960000 0.000000 0
0.980000 0.000000 0
1.000000 0.000000 0
0.000000 0.020000 0
0.020000 0.020000 0
0.040000 0.020000 0
0.060000 0.020000 0
0.080000 0.020000 0
0.100000 0.020000 0
0.120000 0.020000 0
0.140000 0.020000 0
0.160000 0.020000 0
0.180000 0.020000 0
0.200000 0.020000 0
0.220000 0.020000 0
0.240000 0.020000 0
0.260000 0.020000 0
0.280000 0.020000 0
0.300000 0.020000 0
0.320000 0.020000 0
0.340000 0.020000 0
0.360000 0.020000 0
0.380000 0.020000 0
0.400000 0.020000 0
0.420000 0.020000 0
0.440000 0.020000 0
0.460000 0.020000 0
0.480000 0.020000 0
0.500000 0.020000 0
0.520000 0.020000 0
0.540000 0.020000 0
0.560000 0.020000 0
0.580000 0.020000 0
0.600000 0.020000 0
0.620000 0.020000 0
0.640000 0.020000 0
0.660000 0.020000 0
0.680000 0.020000 0
0.700000 0.020000 0
0.720000 0.020000 0
0.740000 0.020000 0
0.760000 0.020000 0
0.780000 0.020000 0
0.800000 0.020000 0
0.820000 0.020000 0
0.840000 0.020000 0
0.860000 0.020000 0
0.880000 0.020000 0
0.900000 0.020000 0
0.920000 0.020000 0
0.940000 0.020000 0
0.960000 0.020000 0
0.980000 0.020000 0
1.000000 0.020000 0
0.000000 0.040000 0
0.020000 0.040000 0
0.040000 0.040000 0
0.060000 0.040000 0
0.080000 0.040000 0
0.100000 0.040000 0
0.120000 0.040000 0
0.140000 0.040000 0
0.160000 0.040000 0
0.180000 0.040000 0
0.200000 0.040000 0
0.220000 0.040000 0
0.240000 0.040000 0
0.260000 0.040000 0
0.280000 0.040000 0
0.300000 0.040000 0
0.320000 0.040000 0
0.340000 0.040000 0
0.360000 0.040000 0
0.380000 0.040000 0
0.400000 0.040000 0
0.420000 0.040000 0
0.440000 0.040000 0
0.460000 0.040000 0
0.480000 0.040000 0
0.500000 0.040000 0
0.520000 0.040000 0
0.540000 0.040000 0
0.560000 0.040000 0
0.580000 0.040000 0
0.600000 0.040000 0
0.620000 0.040000 0
0.640000 0.040000 0
0.660000 0.040000 0
0.680000 0.040000 0
0.700000 0.040000 0
0.720000 0.040000 0
0.740000 0.040000 0
0.760000 0.040000 0
0.780000 0.040000 0
0.800000 0.040000 0
0.820000 0.040000 0
0.840000 0.040000 0
0.860000 0.040000 0
0.880000 0.040000 0
0.900000 0.040000 0
0.920000 0.040000 0
0.940000 0.040000 0
0.960000 0.040000 0
0.980000 0.040000 0
1.000000 0.040000 0
0.000000 0.060000 0
0.020000 0.060000 0
0.040000 0.060000 0
0.060000 0.060000 0
0.080000 0.060000 0
0.100000 0.060000 0
0.120000 0.060000 0
0.140000 0.060000 0
0.160000 0.060000 0
0.180000 0.060000 0
0.200000 0.060000 0
0.220000 0.060000 0
0.240000 0.060000 0
0.260000 0.060000 0
0.280000 0.060000 0
0.300000 0.060000 0
0.320000 0.060000 0
0.340000 0.060000 0
0.360000 0.060000 0
0.380000 0.060000 0
0.400000 0.060000 0
0.420000 0.060000 0
0.440000 0.060000 0
0.460000 0.060000 0
0.480000 0.060000 0
0.500000 0.060000 0
0.520000 0.060000 0
0.540000 0.060000 0
0.560000 0.060000 0
0.580000 0.060000 0
0.600000 0.060000 0
0.620000 0.060000 0
0.640000 0.060000 0
0.660000 0.060000 0
0.680000 0.060000 0
0.700000 0.060000 0
0.720000 0.060000 0
0.740000 0.060000 0
0.760000 0.060000 0
0.780000 0.060000 0
0.800000 0.060000 0
0.820000 0.060000 0
0.840000 0.060000 0
0.860000 0.060000 0
0.880000 0.060000 0
0.900000 0.060000 0
0.920000 0.060000 0
0.940000 0.060000 0
0.960000 0.060000 0
0.980000 0.060000 0
1.000000 0.060000 0
0.000000 0.080000 0
0.020000 0.080000 0
0.040000 0.080000 0
0.060000 0.080000 0
0.080000 0.080000 0
0.100000 0.080000 0
0.120000 0.080000 0
0.140000 0.080000 0
0.160000 0.080000 0
0.180000 0.080000 0
0.200000 0.080000 0
0.220000 0.080000 0
0.240000 0.080000 0
0.260000 0.080000 0
0.280000 0.080000 0
0.300000 0.080000 0
0.320000 0.080000 0
0.340000 0.080000 0
0.360000 0.080000 0
0.380000 0.080000 0
0.400000 0.080000 0
0.420000 0.080000 0
0.440000 0.080000 0
0.460000 0.080000 0
0.480000 0.080000 0
0.500000 0.080000 0
0.520000 0.080000 0
0.540000 0.080000 0
0.560000 0.080000 0
0.580000 0.080000 0
0.600000 0.080000 0
0.620000 0.080000 0
0.640000 0.080000 0
0.660000 0.080000 0
0.680000 0.080000 0
0.700000 0.080000 0
0.720000 0.080000 0
0.740000 0.080000 0
0.760000 0.080000 0
0.780000 0.080000 0
0.800000 0.080000 0
0.820000 0.080000 0
0.840000 0.080000 0
0.860000 0.080000 0
0.880000 0.080000 0
0.900000 0.080000 0
0.920000 0.080000 0
0.940000 0.080000 0
0.960000 0.080000 0
0.980000 0.080000 0
1.000000 0.080000 0
0.000000 0.100000 0
0.020000 0.100000 0
0.040000 0.100000 0
0.060000 0.100000 0
0.080000 0.100000 0
0.100000 0.100000 0
0.120000 0.100000 0
0.140000 0.100000 0
0.160000 0.100000 0
0.180000 0.100000 0
0.200000 0.100000 0
0.220000 0.100000 0
0.240000 0.100000 0
0.260000 0.100000 0
0.280000 0.100000 0
0.300000 0.100000 0
0.320000 0.100000 0
0.340000 0.100000 0
0.360000 0.100000 0
0.380000 0.100000 0
0.400000 0.100000 0
0.420000 0.100000 0
0.440000 0.100000 0
0.460000 0.100000 0
0.480000 0.100000 0
0.500000 0.100000 0
0.520000 0.100000 0
0.540000 0.100000 0
0.560000 0.100000 0
0.580000 0.100000 0
0.600000 0.100000 0
0.620000 0.100000 0
0.640000 0.100000 0
0.660000 0.100000 0
0.680000 0.100000 0
0.700000 0.100000 0
0.720000 0.100000 0
0.740000 0.100000 0
0.760000 0.100000 0
0.780000 0.100000 0
0.800000 0.100000 0
0.820000 0.100000 0
0.840000 0.100000 0
0.860000 0.100000 0
0.880000 0.100000 0
0.900000 0.100000 0
0.920000 0.100000 0
0.940000 0.100000 0
0.960000 0.100000 0
0.980000 0.100000 0
1.000000 0.100000 0
0.000000 0.120000 0
0.020000 0.120000 0
0.040000 0.120000 0
0.060000 0.120000 0
0.080000 0.120000 0
0.100000 0.120000 0
0.120000 0.120000 0
0.140000 0.120000 0
0.160000 0.120000 0
0.180000 0.120000 0
0.200000 0.120000 0
0.220000 0.120000 0
0.240000 0.120000 0
0.260000 0.120000 0
0.280000 0.120000 0
0.300000 0.120000 0
0.320000 0.120000 0
0.340000 0.120000 0
0.360000 0.120000 0
0.380000 0.120000 0
0.400000 0.120000 0
0.420000 0.120000 0
0.440000 0.120000 0
0.460000 0.120000 0
0.480000 0.120000 0
0.500000 0.120000 0
0.520000 0.120000 0
0.540000 0.120000 0
0.560000 0.120000 0
0.580000 0.120000 0
0.600000 0.120000 0
0.620000 0.120000 0
0.640000 0.120000 0
0.660000 0.120000 0
0.680000 0.120000 0
0.700000 0.120000 0
0.720000 0.120000 0
0.740000 0.120000 0
0.760000 0.120000 0
0.780000 0.120000 0
0.800000 0.120000 0
0.820000 0.120000 0
0.840000 0.120000 0
0.860000 0.120000 0
0.880000 0.120000 0
0.900000 0.120000 0
0.920000 0.120000 0
0.940000 0.120000 0
0.960000 0.120000 0
0.980000 0.120000 0
1.000000 0.120000 0
0.000000 0.140000 0
0.020000 0.140000 0
0.040000 0.140000 0
0.060000 0.140000 0
0.080000 0.140000 0
0.100000 0.140000 0
0.120000 0.140000 0
0.140000 0.140000 0
0.160000 0.140000 0
0.180000 0.140000 0
0.200000 0.140000 0
0.220000 0.140000 0
0.240000 0.140000 0
0.260000 0.140000 0
0.280000 0.140000 0
0.300000 0.140000 0
0.320000 0.140000 0
0.340000 0.140000 0
0.360000 0.140000 0
0.380000 0.140000 0
0.400000 0.140000 0
0.420000 0.140000 0
0.440000 0.140000 0
0.460000 0.140000 0
0.480000 0.140000 0
0.500000 0.140000 0
0.520000 0.140000 0
0.540000 0.140000 0
0.560000 0.140000 0
0.580000 0.140000 0
0.600000 0.140000 0
0.620000 0.140000 0
0.640000 0.140000 0
0.660000 0.140000 0
0.680000 0.140000 0
0.700000 0.140000 0
0.720000 0.140000 0
0.740000 0.140000 0
0.760000 0.140000 0
0.780000 0.140000 0
0.800000 0.140000 0
0.820000 0.140000 0
0.840000 0.140000 0
0.860000 0.140000 0
0.880000 0.140000 0
0.900000 0.140000 0
0.920000 0.140000 0
0.940000 0.140000 0
0.960000 0.140000 0
0.980000 0.140000 0
1.000000 0.140000 0
0.000000 0.160000 0
0.020000 0.160000 0
0.040000 0.160000 0
0.060000 0.160000 0
0.080000 0.160000 0
0.100000 0.160000 0
0.120000 0.160000 0
0.140000 0.160000 0
0.160000 0.160000 0
0.180000 0.160000 0
0.200000 0.160000 0
0.220000 0.160000 0
0.240000 0.160000 0
0.260000 0.160000 0
0.280000 0.160000 0
0.300000 0.160000 0
0.320000 0.160000 0
0.340000 0.160000 0
0.360000 0.160000 0
0.380000 0.160000 0
0.400000 0.160000 0
0.420000 0.160000 0
0.440000 0.160000 0
0.460000 0.160000 0
0.480000 0.160000 0
0.500000 0.160000 0
0.520000 0.160000 0
0.540000 0.160000 0
0.560000 0.160000 0
0.580000 0.160000 0
0.600000 0.160000 0
0.620000 0.160000 0
0.640000 0.160000 0
0.660000 0.160000 0
0.680000 0.160000 0
0.700000 0.160000 0
0.720000 0.160000 0
0.740000 0.160000 0
0.760000 0.160000 0
0.780000 0.160000 0
0.800000 0.160000 0
0.820000 0.160000 0
0.840000 0.160000 0
0.860000 0.160000 0
0.880000 0.160000 0
0.900000 0.160000 0
0.920000 0.160000 0
0.940000 0.160000 0
0.960000 0.160000 0
0.980000 0.160000 0
1.000000 0.160000 0
0.000000 0.180000 0
0.020000 0.180000 0
0.040000 0.180000 0
0.060000 0.180000 0
0.080000 0.180000 0
0.100000 0.180000 0
0.120000 0.180000 0
0.140000 0.180000 0
0.160000 0.180000 0
0.180000 0.180000 0
0.200000 0.180000 0
0.220000 0.180000 0
0.240000 0.180000 0
0.260000 0.180000 0
0.280000 0.180000 0
0.300000 0.180000 0
0.320000 0.180000 0
0.340000 0.180000 0
0.360000 0.180000 0
0.380000 0.180000 0
0.400000 0.180000 0
0.420000 0.180000 0
0.440000 0.180000 0
0.460000 0.180000 0
0.480000 0.180000 0
0.500000 0.180000 0
0.520000 0.180000 0
0.540000 0.180000 0
0.560000 0.180000 0
0.580000 0.180000 0
0.600000 0.180000 0
0.620000 0.180000 0
[...]
POINT_DATA 2601 

VECTORS velocity float
0.000000 0.000000 0
0.000000 0.000000 0
-0.000000 0.000000 0
-0.000000 0.000000 0
-0.000000 0.000000 0
-0.000000 0.000000 0
-0.000000 0.000000 0
0.000000 0.000000 0
0.000000 0.000000 0
0.000000 0.000000 0
0.000000 0.000000 0
0.000000 0.000000 0
0.000000 0.000000 0
-0.000000 0.000000 0
-0.000000 0.000000 0
-0.000000 0.000000 0
-0.000000 0.000000 0
-0.000000 0.000000 0
-0.000000 0.000000 0
0.000000 0.000000 0
0.000000 0.000000 0
0.000000 0.000000 0
0.000000 0.000000 0
0.000000 0.000000 0
0.000000 0.000000 0
-0.000000 0.000000 0
-0.000000 0.000000 0
-0.000000 0.000000 0
-0.000000 0.000000 0
-0.000000 0.000000 0
-0.000000 0.000000 0
0.000000 0.000000 0
0.000000 0.000000 0
0.000000 0.000000 0
0.000000 0.000000 0
0.000000 0.000000 0
0.000000 0.000000 0
-0.000000 0.000000 0
-0.000000 0.000000 0
-0.000000 0.000000 0
-0.000000 0.000000 0
-0.000000 0.000000 0
-0.000000 0.000000 0
-0.000000 0.000000 0
0.000000 0.000000 0
0.000000 0.000000 0
0.000000 0.000000 0
0.000000 0.000000 0
0.000000 0.000000 0
0.000000 0.000000 0
0.000000 0.000000 0
0.000000 0.000000 0
0.000146 -0.000145 0
0.000266 -0.000106 0
0.000195 0.000025 0
-0.000139 0.000185 0
-0.000755 0.000345 0
-0.001642 0.000493 0
-0.002781 0.000625 0
-0.004150 0.000743 0
-0.005731 0.000851 0
-0.007511 0.000952 0
-0.009482 0.001050 0
-0.011640 0.001149 0
-0.013989 0.001250 0
-0.016530 0.001354 0
-0.019270 0.001464 0
-0.022212 0.001577 0
-0.025359 0.001692 0
-0.028712 0.001809 0
-0.032265 0.001925 0
-0.036012 0.002037 0
-0.039936 0.002142 0
-0.044018 0.002236 0
-0.048230 0.002316 0
-0.052538 0.002377 0
-0.056900 0.002415 0
-0.061265 0.002426 0
-0.065576 0.002404 0
-0.069768 0.002346 0
-0.073769 0.002246 0
-0.077503 0.002102 0
-0.080885 0.001909 0
-0.083830 0.001665 0
-0.086249 0.001368 0
-0.088054 0.001019 0
-0.089158 0.000617 0
-0.089481 0.000166 0
-0.088948 -0.000331 0
-0.087497 -0.000866 0
-0.085078 -0.001432 0
-0.081656 -0.002019 0
-0.077217 -0.002614 0
-0.071765 -0.003205 0
-0.065330 -0.003777 0
-0.057964 -0.004314 0
-0.049743 -0.004801 0
-0.040767 -0.005223 0
-0.031157 -0.005567 0
-0.021054 -0.005822 0
-0.010613 -0.005979 0
0.000000 -0.006031 0
0.000000 -0.000000 0
0.000102 -0.000267 0
0.000034 -0.000050 0
-0.000400 0.000405 0
-0.001295 0.000950 0
-0.002677 0.001503 0
-0.004539 0.002027 0
-0.006855 0.002509 0
-0.009595 0.002951 0
-0.012731 0.003361 0
-0.016244 0.003750 0
-0.020121 0.004129 0
-0.024354 0.004507 0
-0.028945 0.004889 0
-0.033896 0.005281 0
-0.039210 0.005681 0
-0.044889 0.006089 0
-0.050931 0.006500 0
-0.057329 0.006906 0
-0.064068 0.007300 0
-0.071121 0.007671 0
-0.078455 0.008007 0
-0.086023 0.008294 0
-0.093766 0.008520 0
-0.101612 0.008669 0
-0.109477 0.008726 0
-0.117263 0.008676 0
-0.124862 0.008503 0
-0.132152 0.008194 0
-0.139003 0.007735 0
-0.145278 0.007116 0
-0.150831 0.006327 0
-0.155518 0.005364 0
-0.159190 0.004223 0
-0.161705 0.002909 0
-0.162928 0.001427 0
-0.162734 -0.000210 0
-0.161015 -0.001983 0
-0.157682 -0.003870 0
-0.152671 -0.005841 0
-0.145943 -0.007861 0
-0.137492 -0.009891 0
-0.127346 -0.011886 0
-0.115566 -0.013801 0
-0.102253 -0.015587 0
-0.087542 -0.017197 0
-0.071603 -0.018586 0
-0.054639 -0.019713 0
-0.036880 -0.020544 0
-0.018578 -0.021054 0
0.000000 -0.021225 0
0.000000 -0.000000 0
-0.000046 -0.000180 0
-0.000480 0.000397 0
-0.001468 0.001355 0
-0.003090 0.002463 0
-0.005366 0.003590 0
-0.008287 0.004671 0
-0.011824 0.005680 0
-0.015943 0.006619 0
-0.020613 0.007499 0
-0.025811 0.008340 0
-0.031521 0.009160 0
-0.037732 0.009973 0
-0.044441 0.010791 0
-0.051647 0.011619 0
-0.059346 0.012457 0
-0.067533 0.013299 0
-0.076196 0.014133 0
-0.085313 0.014946 0
-0.094852 0.015717 0
-0.104766 0.016425 0
-0.114995 0.017044 0
-0.125463 0.017547 0
-0.136077 0.017905 0
-0.146730 0.018088 0
-0.157295 0.018066 0
-0.167633 0.017811 0
-0.177592 0.017293 0
-0.187005 0.016487 0
-0.195699 0.015372 0
-0.203493 0.013930 0
-0.210204 0.012149 0
-0.215647 0.010023 0
-0.219647 0.007556 0
-0.222033 0.004757 0
-0.222651 0.001646 0
-0.221363 -0.001747 0
-0.218054 -0.005382 0
-0.212637 -0.009210 0
-0.205054 -0.013171 0
-0.195281 -0.017197 0
-0.183333 -0.021211 0
-0.169264 -0.025131 0
-0.153168 -0.028869 0
-0.135182 -0.032338 0
-0.115483 -0.035451 0
-0.094288 -0.038126 0
-0.071849 -0.040291 0
-0.048447 -0.041884 0
-0.024390 -0.042859 0
0.000000 -0.043187 0
0.000000 0.000000 0
-0.000243 0.000214 0
-0.001144 0.001373 0
-0.002803 0.003015 0
-0.005262 0.004848 0
-0.008523 0.006700 0
-0.012563 0.008484 0
-0.017349 0.010163 0
-0.022846 0.011739 0
-0.029019 0.013229 0
-0.035842 0.014658 0
-0.043297 0.016050 0
-0.051369 0.017428 0
-0.060051 0.018805 0
-0.069332 0.020186 0
-0.079202 0.021568 0
-0.089642 0.022940 0
-0.100626 0.024280 0
-0.112112 0.025562 0
-0.124048 0.026753 0
-0.136363 0.027814 0
-0.148968 0.028703 0
-0.161756 0.029376 0
-0.174603 0.029787 0
-0.187364 0.029886 0
-0.199881 0.029630 0
-0.211978 0.028973 0
-0.223468 0.027875 0
-0.234156 0.026301 0
-0.243837 0.024223 0
-0.252307 0.021620 0
-0.259362 0.018481 0
-0.264806 0.014807 0
-0.268451 0.010609 0
-0.270126 0.005913 0
-0.269676 0.000757 0
-0.266973 -0.004806 0
-0.261912 -0.010709 0
-0.254421 -0.016871 0
-0.244460 -0.023197 0
-0.232028 -0.029582 0
-0.217162 -0.035908 0
-0.199938 -0.042052 0
-0.180476 -0.047883 0
-0.158939 -0.053272 0
-0.135529 -0.058091 0
-0.110488 -0.062220 0
-0.084094 -0.065554 0
-0.056656 -0.068004 0
-0.028508 -0.069501 0
0.000000 -0.070005 0
0.000000 0.000000 0
-0.000458 0.000965 0
-0.001876 0.002957 0
-0.004268 0.005472 0
-0.007625 0.008182 0
-0.011918 0.010891 0
-0.017106 0.013497 0
-0.023146 0.015963 0
-0.029997 0.018288 0
-0.037621 0.020496 0
-0.045991 0.022619 0
-0.055083 0.024688 0
-0.064879 0.026728 0
-0.075363 0.028755 0
-0.086517 0.030771 0
-0.098316 0.032767 0
-0.110728 0.034722 0
-0.123708 0.036603 0
-0.137194 0.038368 0
-0.151109 0.039968 0
-0.165357 0.041344 0
-0.179820 0.042437 0
-0.194362 0.043182 0
-0.208830 0.043513 0
-0.223050 0.043366 0
-0.236835 0.042680 0
-0.249985 0.041398 0
-0.262290 0.039470 0
-0.273538 0.036856 0
-0.283511 0.033523 0
-0.291998 0.029456 0
-0.298793 0.024648 0
-0.303702 0.019113 0
-0.306546 0.012876 0
-0.307165 0.005982 0
-0.305422 -0.001507 0
-0.301205 -0.009512 0
-0.294430 -0.017934 0
-0.285045 -0.026662 0
-0.273032 -0.035564 0
-0.258408 -0.044496 0
-0.241228 -0.053302 0
-0.221584 -0.061816 0
-0.199612 -0.069868 0
-0.175486 -0.077285 0
-0.149421 -0.083902 0
-0.121669 -0.089561 0
-0.092520 -0.094122 0
-0.062293 -0.097470 0
-0.031332 -0.099515 0
0.000000 -0.100203 0
0.000000 0.000000 0
-0.000676 0.002090 0
-0.002624 0.005183 0
-0.005770 0.008764 0
-0.010044 0.012497 0
-0.015378 0.016181 0
-0.021707 0.019712 0
-0.028974 0.023054 0
-0.037129 0.026215 0
-0.046130 0.029224 0
-0.055943 0.032120 0
-0.066542 0.034939 0
-0.077901 0.037708 0
-0.089994 0.040442 0
-0.102793 0.043139 0
-0.116259 0.045780 0
-0.130341 0.048331 0
-0.144975 0.050746 0
-0.160077 0.052963 0
-0.175547 0.054915 0
-0.191261 0.056524 0
-0.207078 0.057709 0
-0.222836 0.058387 0
-0.238356 0.058474 0
-0.253444 0.057891 0
-0.267894 0.056565 0
-0.281493 0.054429 0
-0.294021 0.051429 0
-0.305260 0.047523 0
-0.314996 0.042684 0
-0.323024 0.036902 0
-0.329149 0.030185 0
-0.333193 0.022560 0
-0.334996 0.014072 0
-0.334419 0.004789 0
-0.331349 -0.005204 0
-0.325694 -0.015798 0
-0.317392 -0.026869 0
-0.306411 -0.038268 0
-0.292748 -0.049834 0
-0.276433 -0.061387 0
-0.257531 -0.072733 0
-0.236141 -0.083667 0
-0.212403 -0.093981 0
-0.186494 -0.103463 0
-0.158628 -0.111907 0
-0.129059 -0.119121 0
-0.098078 -0.124931 0
-0.066006 -0.129191 0
-0.033191 -0.131794 0
0.000000 -0.132669 0
0.000000 -0.000000 0
-0.000888 0.003589 0
-0.003356 0.008051 0
-0.007243 0.012892 0
-0.012416 0.017789 0
-0.018763 0.022554 0
-0.026193 0.027094 0
-0.034630 0.031385 0
-0.044011 0.035444 0
-0.054288 0.039311 0
-0.065419 0.043031 0
-0.077370 0.046645 0
-0.090108 0.050180 0
-0.103597 0.053647 0
-0.117795 0.057035 0
-0.132646 0.060315 0
-0.148083 0.063438 0
-0.164020 0.066340 0
-0.180353 0.068941 0
-0.196958 0.071152 0
-0.213689 0.072876 0
-0.230383 0.074012 0
-0.246858 0.074459 0
-0.262920 0.074121 0
-0.278360 0.072904 0
-0.292966 0.070729 0
-0.306520 0.067525 0
-0.318806 0.063238 0
-0.329613 0.057831 0
-0.338741 0.051287 0
-0.346000 0.043608 0
-0.351219 0.034817 0
-0.354242 0.024960 0
-0.354934 0.014102 0
-0.353181 0.002335 0
-0.348891 -0.010233 0
-0.341995 -0.023468 0
-0.332449 -0.037217 0
-0.320232 -0.051306 0
-0.305351 -0.065542 0
-0.287840 -0.079713 0
-0.267766 -0.093593 0
-0.245226 -0.106943 0
-0.220353 -0.119516 0
-0.193318 -0.131061 0
-0.164329 -0.141336 0
-0.133635 -0.150110 0
-0.101521 -0.157175 0
-0.068308 -0.162357 0
-0.034344 -0.165521 0
0.000000 -0.166585 0
0.000000 -0.000000 0
-0.001087 0.005446 0
-0.004046 0.011537 0
-0.008636 0.017824 0
-0.014660 0.024018 0
-0.021964 0.029959 0
-0.030424 0.035579 0
-0.039943 0.040872 0
-0.050446 0.045872 0
-0.061872 0.050631 0
-0.074172 0.055202 0
-0.087302 0.059628 0
-0.101218 0.063935 0
-0.115872 0.068128 0
-0.131208 0.072187 0
-0.147155 0.076068 0
-0.163626 0.079706 0
-0.180517 0.083016 0
-0.197703 0.085901 0
-0.215041 0.088251 0
-0.232367 0.089949 0
-0.249502 0.090878 0
-0.266252 0.090924 0
-0.282413 0.089976 0
-0.297776 0.087938 0
-0.312126 0.084724 0
-0.325255 0.080268 0
-0.336960 0.074522 0
-0.347046 0.067458 0
-0.355335 0.059071 0
-0.361662 0.049380 0
-0.365880 0.038427 0
-0.367862 0.026275 0
-0.367498 0.013011 0
-0.364697 -0.001254 0
-0.359388 -0.016389 0
-0.351518 -0.032241 0
-0.341052 -0.048632 0
-0.327978 -0.065367 0
-0.312303 -0.082226 0
-0.294058 -0.098972 0
-0.273301 -0.115347 0
-0.250120 -0.131080 0
-0.224635 -0.145889 0
-0.197004 -0.159487 0
-0.167425 -0.171590 0
-0.136135 -0.181929 0
-0.103414 -0.190257 0
-0.069580 -0.196368 0
-0.034984 -0.200102 0
0.000000 -0.201358 0
0.000000 0.000000 0
-0.001268 0.007635 0
-0.004677 0.015600 0
-0.009910 0.023505 0
-0.016713 0.031117 0
-0.024889 0.038318 0
-0.034282 0.045073 0
-0.044772 0.051407 0
-0.056269 0.057373 0
-0.068697 0.063037 0
-0.081998 0.068461 0
-0.096115 0.073691 0
-0.110994 0.078751 0
-0.126573 0.083637 0
-0.142780 0.088317 0
-0.159530 0.092732 0
-0.176719 0.096800 0
-0.194224 0.100417 0
-0.211905 0.103465 0
-0.229603 0.105815 0
-0.247142 0.107337 0
-0.264334 0.107897 0
-0.280980 0.107371 0
-0.296875 0.105644 0
-0.311815 0.102617 0
-0.325598 0.098209 0
-0.338030 0.092358 0
-0.348927 0.085028 0
-0.358120 0.076206 0
-0.365456 0.065903 0
-0.370799 0.054154 0
-0.374030 0.041018 0
-0.375046 0.026577 0
-0.373762 0.010937 0
-0.370108 -0.005775 0
-0.364026 -0.023412 0
-0.355474 -0.041804 0
-0.344423 -0.060756 0
-0.330857 -0.080055 0
-0.314779 -0.099462 0
-0.296209 -0.118715 0
-0.275190 -0.137531 0
-0.251795 -0.155609 0
-0.226125 -0.172631 0
-0.198322 -0.188272 0
-0.168567 -0.202206 0
-0.137088 -0.214121 0
-0.104158 -0.223730 0
-0.070092 -0.230787 0
-0.035245 -0.235101 0
0.000000 -0.236553 0
0.000000 0.000000 0
-0.001427 0.010123 0
-0.005233 0.020179 0
-0.011034 0.029860 0
-0.018524 0.038997 0
-0.027465 0.047527 0
-0.037672 0.055462 0
-0.049002 0.062859 0
-0.061344 0.069797 0
-0.074611 0.076361 0
-0.088730 0.082620 0
-0.103632 0.088624 0
-0.119250 0.094393 0
-0.135508 0.099915 0
-0.152321 0.105144 0
-0.169588 0.110006 0
-0.187190 0.114400 0
-0.204991 0.118203 0
-0.222837 0.121281 0
-0.240560 0.123488 0
-0.257978 0.124680 0
-0.274900 0.124716 0
-0.291129 0.123464 0
-0.306469 0.120811 0
-0.320728 0.116661 0
-0.333721 0.110939 0
-0.345277 0.103597 0
-0.355237 0.094612 0
-0.363459 0.083987 0
-0.369818 0.071750 0
-0.374208 0.057954 0
-0.376534 0.042674 0
-0.376718 0.026007 0
-0.374696 0.008073 0
-0.370410 -0.010990 0
-0.363814 -0.031023 0
-0.354869 -0.051844 0
-0.343544 -0.073249 0
-0.329818 -0.095011 0
-0.313680 -0.116874 0
-0.295135 -0.138560 0
-0.274209 -0.159761 0
-0.250951 -0.180146 0
-0.225443 -0.199362 0
-0.197807 -0.217045 0
-0.168207 -0.232824 0
-0.136858 -0.246338 0
-0.104026 -0.257253 0
-0.070027 -0.265281 0
-0.035220 -0.270194 0
0.000000 -0.271848 0
0.000000 0.000000 0
-0.001561 0.012868 0
-0.005702 0.025206 0
-0.011982 0.036797 0
-0.020052 0.047549 0
-0.029637 0.057466 0
-0.040522 0.066610 0
-0.052542 0.075079 0
-0.065568 0.082982 0
-0.079497 0.090422 0
-0.094242 0.097481 0
-0.109720 0.104211 0
-0.125851 0.110627 0
-0.142547 0.116709 0
-0.159707 0.122397 0
-0.177218 0.127601 0
-0.194949 0.132203 0
-0.212753 0.136064 0
-0.230470 0.139034 0
-0.247927 0.140956 0
-0.264940 0.141676 0
-0.281324 0.141047 0
-0.296891 0.138940 0
-0.311459 0.135243 0
-0.324854 0.129870 0
-0.336915 0.122758 0
-0.347494 0.113873 0
-0.356462 0.103210 0
-0.363704 0.090788 0
-0.369125 0.076652 0
-0.372643 0.060869 0
-0.374189 0.043528 0
-0.373703 0.024739 0
-0.371136 0.004629 0
-0.366442 -0.016657 0
-0.359578 -0.038953 0
-0.350504 -0.062073 0
-0.339184 -0.085807 0
-0.325583 -0.109919 0
-0.309678 -0.134144 0
-0.291452 -0.158186 0
-0.270910 -0.181716 0
-0.248078 -0.204375 0
-0.223016 -0.225775 0
-0.195821 -0.245508 0
-0.166642 -0.263155 0
-0.135680 -0.278302 0
-0.103194 -0.290561 0
-0.069500 -0.299593 0
-0.034966 -0.305128 0
0.000000 -0.306993 0
0.000000 -0.000000 0
-0.001667 0.015824 0
-0.006074 0.030600 0
-0.012736 0.044211 0
-0.021268 0.056652 0
-0.031361 0.067997 0
-0.042776 0.078367 0
-0.055327 0.087905 0
-0.068866 0.096753 0
-0.083274 0.105034 0
-0.098449 0.112843 0
-0.114294 0.120234 0
-0.130716 0.127220 0
-0.147614 0.133771 0
-0.164876 0.139815 0
-0.182377 0.145248 0
-0.199978 0.149935 0
-0.217526 0.153725 0
-0.234859 0.156454 0
-0.251802 0.157958 0
-0.268180 0.158077 0
-0.283816 0.156666 0
-0.298538 0.153600 0
-0.312181 0.148775 0
-0.324595 0.142116 0
-0.335643 0.133579 0
-0.345206 0.123144 0
-0.353181 0.110822 0
-0.359484 0.096651 0
-0.364042 0.080689 0
-0.366798 0.063017 0
-0.367703 0.043734 0
-0.366714 0.022955 0
-0.363791 0.000812 0
-0.358894 -0.022549 0
-0.351981 -0.046961 0
-0.343008 -0.072238 0
-0.331928 -0.098170 0
-0.318694 -0.124516 0
-0.303263 -0.151006 0
-0.285599 -0.177328 0
-0.265681 -0.203135 0
-0.243512 -0.228040 0
-0.219127 -0.251619 0
-0.192601 -0.273418 0
-0.164063 -0.292965 0
-0.133700 -0.309787 0
-0.101766 -0.323433 0
-0.068580 -0.333509 0
-0.034516 -0.339694 0
0.000000 -0.341780 0
0.000000 -0.000000 0
-0.001743 0.018941 0
-0.006343 0.036276 0
-0.013284 0.051991 0
-0.022149 0.066173 0
-0.032608 0.078975 0
-0.044400 0.090576 0
-0.057316 0.101169 0
-0.071192 0.110929 0
-0.085894 0.120004 0
-0.101303 0.128501 0
-0.117311 0.136479 0
-0.133810 0.143947 0
-0.150688 0.150868 0
-0.167824 0.157159 0
-0.185085 0.162703 0
-0.202326 0.167352 0
-0.219394 0.170945 0
-0.236127 0.173310 0
-0.252357 0.174278 0
-0.267919 0.173690 0
-0.282649 0.171405 0
-0.296396 0.167305 0
-0.309016 0.161300 0
-0.320383 0.153331 0
-0.330388 0.143369 0
-0.338938 0.131412 0
-0.345958 0.117488 0
-0.351386 0.101649 0
-0.355177 0.083966 0
-0.357290 0.064530 0
-0.357694 0.043444 0
-0.356357 0.020827 0
-0.353247 -0.003191 0
-0.348327 -0.028467 0
-0.341552 -0.054839 0
-0.332871 -0.082126 0
-0.322227 -0.110121 0
-0.309557 -0.138584 0
-0.294798 -0.167240 0
-0.277893 -0.195768 0
-0.258796 -0.223803 0
-0.237486 -0.250929 0
-0.213971 -0.276686 0
-0.188304 -0.300572 0
-0.160592 -0.322057 0
-0.131008 -0.340599 0
-0.099805 -0.355680 0
-0.067307 -0.366843 0
-0.033888 -0.373709 0
0.000000 -0.376025 0
0.000000 0.000000 0
-0.001789 0.022167 0
-0.006506 0.042141 0
-0.013617 0.060017 0
-0.022687 0.075977 0
-0.033366 0.090247 0
-0.045375 0.103075 0
-0.058489 0.114698 0
-0.072528 0.125331 0
-0.087339 0.135144 0
-0.102793 0.144259 0
-0.118767 0.152741 0
-0.135143 0.160598 0
-0.151797 0.167785 0
-0.168601 0.174212 0
-0.185417 0.179750 0
-0.202101 0.184245 0
-0.218499 0.187525 0
-0.234456 0.189417 0
-0.249814 0.189750 0
-0.264423 0.188370 0
-0.278137 0.185144 0
-0.290824 0.179966 0
-0.302366 0.172762 0
-0.312662 0.163489 0
-0.321628 0.152133 0
-0.329197 0.138713 0
-0.335318 0.123271 0
-0.339954 0.105870 0
-0.343076 0.086593 0
-0.344663 0.065535 0
-0.344694 0.042801 0
-0.343147 0.018508 0
-0.339995 -0.007219 0
-0.335201 -0.034244 0
-0.328718 -0.062416 0
-0.320486 -0.091563 0
-0.310436 -0.121484 0
-0.298488 -0.151946 0
-0.284562 -0.182670 0
-0.268576 -0.213330 0
-0.250463 -0.243542 0
-0.230172 -0.272865 0
-0.207690 -0.300800 0
-0.183042 -0.326797 0
-0.156314 -0.350261 0
-0.127663 -0.370573 0
-0.097342 -0.387135 0
-0.065696 -0.399426 0
-0.033085 -0.407001 0
0.000000 -0.409555 0
0.000000 0.000000 0
-0.001803 0.025447 0
-0.006562 0.048104 0
-0.013735 0.068172 0
-0.022879 0.085923 0
-0.033633 0.101662 0
-0.045702 0.115699 0
-0.058849 0.128322 0
-0.072878 0.139780 0
-0.087624 0.150270 0
-0.102942 0.159929 0
-0.118698 0.168828 0
-0.134764 0.176977 0
-0.151009 0.184326 0
-0.167299 0.190780 0
-0.183495 0.196203 0
-0.199453 0.200434 0
-0.215026 0.203300 0
-0.230068 0.204626 0
-0.244436 0.204246 0
-0.257994 0.202013 0
-0.270618 0.197806 0
-0.282199 0.191534 0
-0.292641 0.183138 0
-0.301869 0.172593 0
-0.309823 0.159903 0
-0.316460 0.145102 0
-0.321750 0.128245 0
-0.325676 0.109407 0
-0.328226 0.088675 0
-0.329391 0.066148 0
-0.329161 0.041929 0
-0.327521 0.016129 0
-0.324447 -0.011138 0
-0.319901 -0.039745 0
-0.313832 -0.069554 0
-0.306172 -0.100408 0
-0.296842 -0.132118 0
-0.285745 -0.164458 0
-0.272782 -0.197152 0
-0.257848 -0.229868 0
-0.240851 -0.262206 0
-0.221716 -0.293701 0
-0.200401 -0.323816 0
-0.176908 -0.351948 0
-0.151296 -0.377436 0
-0.123702 -0.399571 0
-0.094381 -0.417647 0
-0.063740 -0.431100 0
-0.032093 -0.439404 0
0.000000 -0.442194 0
0.000000 0.000000 0
-0.001788 0.028729 0
-0.006513 0.054073 0
-0.013644 0.076335 0
-0.022734 0.095874 0
-0.033419 0.113070 0
-0.045397 0.128291 0
-0.058418 0.141874 0
-0.072273 0.154106 0
-0.086786 0.165208 0
-0.101800 0.175334 0
-0.117170 0.184563 0
-0.132759 0.192908 0
-0.148430 0.200320 0
-0.164048 0.206698 0
-0.179474 0.211904 0
-0.194569 0.215776 0
-0.209194 0.218140 0
-0.223216 0.218826 0
-0.236506 0.217676 0
-0.248949 0.214552 0
-0.260442 0.209348 0
-0.270896 0.201989 0
-0.280241 0.192432 0
-0.288423 0.180670 0
-0.295407 0.166724 0
-0.301169 0.150641 0
-0.305699 0.132487 0
-0.308995 0.112346 0
-0.311059 0.090308 0
-0.311893 0.066470 0
-0.311497 0.040932 0
-0.309859 0.013794 0
-0.306957 -0.014840 0
-0.302755 -0.044860 0
-0.297196 -0.076145 0
-0.290207 -0.108552 0
-0.281696 -0.141911 0
-0.271553 -0.176006 0
-0.259658 -0.210567 0
-0.245886 -0.245261 0
-0.230118 -0.279674 0
-0.212251 -0.313315 0
-0.192216 -0.345609 0
-0.169990 -0.375902 0
-0.145604 -0.403467 0
-0.119162 -0.427488 0
-0.090906 -0.447096 0
-0.061391 -0.461714 0
-0.030871 -0.470742 0
0.000000 -0.473741 0
0.000000 -0.000000 0
-0.001743 0.031961 0
-0.006366 0.059960 0
-0.013352 0.084393 0
-0.022268 0.105699 0
-0.032749 0.124325 0
-0.044491 0.140698 0
-0.057235 0.155198 0
-0.070764 0.168149 0
-0.084889 0.179797 0
-0.099444 0.190312 0
-0.114275 0.199787 0
-0.129239 0.208237 0
-0.144195 0.215616 0
-0.159007 0.221824 0
-0.173539 0.226723 0
-0.187661 0.230154 0
-0.201243 0.231947 0
-0.214167 0.231938 0
-0.226323 0.229979 0
-0.237612 0.225948 0
-0.247954 0.219752 0
-0.257283 0.211333 0
-0.265549 0.200666 0
-0.272721 0.187759 0
-0.278783 0.172649 0
-0.283729 0.155394 0
-0.287566 0.136071 0
-0.290305 0.114767 0
-0.291960 0.091574 0
-0.292541 0.066586 0
-0.292054 0.039894 0
-0.290494 0.011589 0
-0.287840 -0.018242 0
-0.284055 -0.049506 0
-0.279081 -0.082102 0
-0.272838 -0.115908 0
-0.265225 -0.150772 0
-0.256118 -0.186495 0
-0.245379 -0.222819 0
-0.232860 -0.259408 0
-0.218416 -0.295842 0
-0.201915 -0.331603 0
-0.183257 -0.366077 0
-0.162388 -0.398560 0
-0.139314 -0.428263 0
-0.114092 -0.454270 0
-0.086917 -0.475419 0
-0.058440 -0.491135 0
-0.029481 -0.500795 0
0.000000 -0.503936 0
0.000000 -0.000000 0
-0.001673 0.035095 0
-0.006127 0.065681 0
-0.012876 0.092237 0
-0.021504 0.115272 0
-0.031656 0.135292 0
-0.043026 0.152776 0
-0.055355 0.168148 0
-0.068416 0.181760 0
-0.082014 0.193889 0
-0.095972 0.204720 0
-0.110130 0.214358 0
-0.124339 0.222828 0
-0.138459 0.230088 0
-0.152354 0.236042 0
-0.165894 0.240558 0
-0.178957 0.243480 0
-0.191427 0.244647 0
-0.203200 0.243906 0
-0.214185 0.241121 0
-0.224303 0.236184 0